HEADER
"PSFversion" "1.00"
"M0n" "ECE6720_nmos_spectre"
"V1n V0n" "ECE6720_vdc_spectre"
"IPRB0n" "ECE6720_iprobe_spectre"
