HEADER
"PSFversion" "1.00"
"simulator" "spectre"
"version" "20.1.0.126.isr3"
"date" "2:46:34 PM, Wed Nov 24, 2021"
"design" "// Generated for: spectre"
"analysis type" "info.subckts"
"analysis name" "subckts"
"analysis description" "Circuit Information"
"xVecSorted" "unknown"
"tolerance.relative" 0.00100000
TYPE
"subckt" STRUCT(
"subckt_params" STRING *
"subckt_terminals" STRING *
"subckt_instances" STRING *
) PROP(
"key" "sub"
)
VALUE
"ideal_balun" "subckt" (
""
"vcm vdm vm vp 0"
"I5 I4"
)
END
