HEADER
"PSFversion" "1.00"
"design" "(\"MyOwnECE6720\" \"HW9\" \"schematic\" \"\")"
"simulator" "spectre"
"temperature" "27"
"host" ""
"date" "Nov 10 20:25:18 2021"
"title" ""
"analysisList" "()"
END
