HEADER
"PSFversion" "1.00"
"simulator" "spectre"
"version" "20.1.0.126.isr3"
"date" "8:25:19 PM, Wed Nov 10, 2021"
"design" "// Generated for: spectre"
"analysis type" "info.subckts"
"analysis name" "subckts"
"analysis description" "Circuit Information"
"xVecSorted" "unknown"
"tolerance.relative" 0.00100000
TYPE
"subckt" STRUCT(
"subckt_params" STRING *
"subckt_terminals" STRING *
"subckt_instances" STRING *
) PROP(
"key" "sub"
)
VALUE
"HW9_A1" "subckt" (
""
"Vm Vout Vp 0"
"I0"
)
END
