HEADER
"PSFversion" "1.00"
"Time Stamp" "Nov 10 20:25:18 2021"
TYPE
"variable" STRUCT(
"value" FLOAT DOUBLE
) PROP( "key" "element" )
VALUE
"R1" "variable" ( 10e3 ) PROP( )
"R2" "variable" ( 12e3 ) PROP( )
"temp" "variable" ( 27 ) PROP( )
END
