HEADER
"PSFversion" "1.00"
"Log Generator" "drlLog rev. 1.0"
"Log Time Stamp" "Fri Dec  3 10:24:56 2021"
"psfversion" "1.4.0"
"simulator" "spectre"
"version" "20.1.0.126.isr3"
"date" "10:24:56 AM, Fri Dec 3, 2021"
"design" "// Generated for: spectre"
"signalNameType" "spectre"
"simMode" "Spectre"
"measdgt" 0
"ingold" 2
"sst2usecolon" 0
TYPE
"analysisInst" STRUCT(
"analysisType" STRING *
"dataFile" STRING *
"format" STRING *
"parent" STRING *
"sweepVariable" ARRAY ( * ) STRING *
"description" STRING *
)
VALUE
"dcOp-dc" "analysisInst" (
"dc"
"dcOp.dc"
"PSF"
""
()
"DC Analysis `dcOp'"
) PROP(
"data_type" "scalar"
)

"dcOpInfo-info" "analysisInst" (
"info"
"dcOpInfo.info"
"PSF"
""
()
"Circuit Information"
) PROP(
"data_type" "struct"
)

"ac-ac" "analysisInst" (
"ac"
"ac.ac"
"PSF"
""
("freq")
"AC Analysis `ac': freq = (1 Hz -> 100 GHz)"
) PROP(
"data_type" "swept_scalar"
)

"noise-noise" "analysisInst" (
"noise"
"noise.noise"
"PSF"
""
("freq")
"Noise Analysis `noise': freq = (1 Hz -> 100 GHz)"
) PROP(
"data_type" "swept_struct"
)

"stb-stb" "analysisInst" (
"stb"
"stb.stb"
"PSF"
""
("freq")
"Stability Analysis `stb': freq = (1 Hz -> 5 GHz)"
) PROP(
"data_type" "swept_scalar"
)

"stb-margin.stb" "analysisInst" (
"margin.stb"
"stb.margin.stb"
"PSF"
""
()
"Stability Analysis `stb': freq = (1 Hz -> 5 GHz)"
) PROP(
"data_type" "scalar"
)

"modelParameter-info" "analysisInst" (
"info"
"modelParameter.info"
"PSF"
""
()
"Circuit Information"
) PROP(
"data_type" "struct"
)

"element-info" "analysisInst" (
"info"
"element.info"
"PSF"
""
()
"Circuit Information"
) PROP(
"data_type" "struct"
)

"outputParameter-info" "analysisInst" (
"info"
"outputParameter.info"
"PSF"
""
()
"Circuit Information"
) PROP(
"data_type" "struct"
)

"designParamVals-info" "analysisInst" (
"info"
"designParamVals.info"
"PSF"
""
()
"Circuit Information"
) PROP(
"data_type" "struct"
)

"primitives-info.primitives" "analysisInst" (
"info.primitives"
"primitives.info.primitives"
"PSF"
""
()
"Circuit Information"
)
"subckts-info.subckts" "analysisInst" (
"info.subckts"
"subckts.info.subckts"
"PSF"
""
()
"Circuit Information"
)