HEADER
"PSFversion" "1.00"
"design" "(\"MyOwnECE6720\" \"Project_Top_TB\" \"schematic\" \"\")"
"simulator" "spectre"
"temperature" "27"
"host" ""
"date" "Dec  3 10:24:53 2021"
"title" ""
"analysisList" "()"
END
