HEADER
"PSFversion" "1.00"
"simulator" "spectre"
"version" "20.1.0.126.isr3"
"date" "10:24:56 AM, Fri Dec 3, 2021"
"design" "// Generated for: spectre"
"analysis type" "info.subckts"
"analysis name" "subckts"
"analysis description" "Circuit Information"
"xVecSorted" "unknown"
"tolerance.relative" 0.00100000
TYPE
"subckt" STRUCT(
"subckt_params" STRING *
"subckt_terminals" STRING *
"subckt_instances" STRING *
) PROP(
"key" "sub"
)
VALUE
"D_to_SE_OTA_model" "subckt" (
"ID"
"VDD vim vip vout 0"
"A1"
)
END
