HEADER
"PSFversion" "1.00"
"design" "(\"ECE6720\" \"example_cs\" \"schematic\" \"\")"
"simulator" "spectre"
"temperature" "27"
"host" ""
"date" "Sep 20 11:45:41 2021"
"title" ""
"analysisList" "()"
END
