HEADER
"PSFversion" "1.00"
"Time Stamp" "Sep 20 11:45:41 2021"
TYPE
"variable" STRUCT(
"value" FLOAT DOUBLE
) PROP( "key" "element" )
VALUE
"temp" "variable" ( 27 ) PROP( )
END
