HEADER
"PSFversion" "1.00"
"design" "(\"MyOwnECE6720\" \"Project\" \"schematic\" \"\")"
"simulator" "spectre"
"temperature" "27"
"host" ""
"date" "Nov 28 17:26:35 2021"
"title" ""
"analysisList" "()"
END
