HEADER
"PSFversion" "1.00"
"R0n" "ECE6720_res_spectre"
"C0n" "ECE6720_cap_spectre"
"V0n" "ECE6720_vdc_spectre"
