HEADER
"PSFversion" "1.00"
"design" "(\"MyOwnECE6720\" \"Common_Gate\" \"schematic\" \"\")"
"simulator" "spectre"
"temperature" "27"
"host" ""
"date" "Sep 22 21:25:50 2021"
"title" ""
"analysisList" "()"
END
