HEADER
"PSFversion" "1.00"
"VDDn" "ECE6720_vdc_spectre"
"RLn" "ECE6720_res_spectre"
"VINn" "ECE6720_vsin_spectre"
"CLn" "ECE6720_cap_spectre"
"M1n" "ECE6720_nmos_spectre"
