HEADER
"PSFversion" "1.00"
"K3n K0n" "ECE6720_xfmr_spectre"
"vcmv" ":1v"
"vdmv" ":2v"
"vmv" ":3v"
"vpv" ":4v"
