HEADER
"PSFversion" "1.00"
"design" "(\"MyOwnECE6720\" \"RC_LPF\" \"schematic\" \"\")"
"simulator" "spectre"
"temperature" "27"
"host" ""
"date" "Sep 20 12:09:37 2021"
"title" ""
"analysisList" "()"
END
