HEADER
"PSFversion" "1.00"
"Time Stamp" "Sep 20 12:09:37 2021"
TYPE
"variable" STRUCT(
"value" FLOAT DOUBLE
) PROP( "key" "element" )
VALUE
"vdc" "variable" ( 1 ) PROP( )
"temp" "variable" ( 27 ) PROP( )
END
