HEADER
"PSFversion" "1.00"
"design" "(\"MyOwnECE6720\" \"HW7\" \"schematic\" \"\")"
"simulator" "spectre"
"temperature" "27"
"host" ""
"date" "Nov  3 21:16:06 2021"
"title" ""
"analysisList" "()"
END
