HEADER
"PSFversion" "1.00"
"simulator" "spectre"
"version" "20.1.0.126.isr3"
"date" "9:16:08 PM, Wed Nov 3, 2021"
"design" "// Generated for: spectre"
"analysis type" "info.subckts"
"analysis name" "subckts"
"analysis description" "Circuit Information"
"xVecSorted" "unknown"
"tolerance.relative" 0.00100000
END
