HEADER
"PSFversion" "1.00"
"Time Stamp" "Nov  3 21:16:06 2021"
TYPE
"variable" STRUCT(
"value" FLOAT DOUBLE
) PROP( "key" "element" )
VALUE
"V0" "variable" ( 1.8 ) PROP( )
"temp" "variable" ( 27 ) PROP( )
END
