HEADER
"PSFversion" "1.00"
"design" "(\"MyOwnECE6720\" \"HW10\" \"schematic\" \"\")"
"simulator" "spectre"
"temperature" "27"
"host" ""
"date" "Nov 24 08:56:37 2021"
"title" ""
"analysisList" "()"
END
